64
Lattice="8.03447757 0.0 0.0 0.0 8.03447757 0.0 0.0 0.0 8.03447757" Properties=species:S:1:pos:R:3:forces:R:3:energies:R:1 energy=-206.97604802 pbc="T T T"
Li       8.03444744       8.03438365       8.03444575       0.00000868       0.00051757       0.00001321       0.00000000
Li       8.03434492       0.00004973       4.01714671      -0.00015163       0.00029942       0.00073991       0.00000000
Li       0.00017941       4.01703326       8.03420729      -0.00066930      -0.00009139       0.00184745       0.00000000
Li       8.03435914       4.01747877       4.01726907       0.00104256      -0.00133763      -0.00077370       0.00000000
Li       4.01745636       8.03447251       0.00006315      -0.00119225      -0.00003112      -0.00001157       0.00000000
Li       4.01724111       0.00006853       4.01736862       0.00013868       0.00017565      -0.00015712       0.00000000
Li       4.01716431       4.01720962       0.00024658       0.00005661       0.00010152      -0.00016846       0.00000000
Li       4.01743579       4.01722360       4.01721934      -0.00097857      -0.00013338      -0.00001372       0.00000000
Li       0.00002282       2.00837185       2.00882700      -0.00022554       0.00091298      -0.00034719       0.00000000
Li       0.00013442       2.00843026       6.02583287      -0.00002221       0.00017305       0.00037848       0.00000000
Li       0.00007986       6.02609029       2.00895957      -0.00052277      -0.00111113      -0.00191373       0.00000000
Li       0.00013249       6.02569403       6.02604667      -0.00033427       0.00082529       0.00014046       0.00000000
Li       4.01698144       2.00864711       2.00833031       0.00050902       0.00040677       0.00164829       0.00000000
Li       4.01698859       2.00847477       6.02590711       0.00010767       0.00104342       0.00008184       0.00000000
Li       4.01718487       6.02591723       2.00859657       0.00029750      -0.00039894      -0.00000046       0.00000000
Li       4.01716945       6.02579639       6.02584420       0.00017027      -0.00037843       0.00062283       0.00000000
Li       2.00872360       0.00006645       2.00889996      -0.00035347       0.00025713      -0.00093122       0.00000000
Li       2.00883584       8.03426683       6.02558035      -0.00117513       0.00109888       0.00136978       0.00000000
Li       2.00840318       4.01728796       2.00878410       0.00051832      -0.00068483      -0.00060366       0.00000000
Li       2.00861594       4.01719733       6.02612115       0.00041445      -0.00054276      -0.00029510       0.00000000
Li       6.02589875       0.00040847       2.00863345      -0.00004020      -0.00101759       0.00060669       0.00000000
Li       6.02562815       0.00001880       6.02571806       0.00135088      -0.00023408       0.00022275       0.00000000
Li       6.02572464       4.01724642       2.00856355       0.00114378      -0.00036052      -0.00042610       0.00000000
Li       6.02582917       4.01747757       6.02566495       0.00038647      -0.00072726       0.00135248       0.00000000
Li       2.00859312       2.00835675       0.00016206      -0.00024673       0.00009240      -0.00024116       0.00000000
Li       2.00866591       2.00835297       4.01712100      -0.00006509       0.00097711       0.00066895       0.00000000
Li       2.00871227       6.02597243       0.00014550      -0.00041207      -0.00004500       0.00008857       0.00000000
Li       2.00842528       6.02591153       4.01725734       0.00054752      -0.00014762      -0.00002100       0.00000000
Li       6.02553045       2.00827961       8.03432467       0.00118160       0.00201993       0.00087407       0.00000000
Li       6.02580917       2.00880089       4.01751597       0.00043828      -0.00003700      -0.00058633       0.00000000
Li       6.02582347       6.02577422       8.03444150       0.00075521      -0.00063898       0.00062208       0.00000000
Li       6.02573131       6.02570496       4.01709151       0.00090561       0.00027380      -0.00020364       0.00000000
H        8.03343478       0.00003214       2.00885159       0.00258729      -0.00026059      -0.00027210       0.00000000
H        8.03395252       0.00055125       6.02595242       0.00117083      -0.00165703      -0.00024917       0.00000000
H        0.00043949       4.01653215       2.00802629      -0.00013150       0.00161195       0.00197612       0.00000000
H        0.00042768       4.01678170       6.02583906      -0.00052682       0.00138222       0.00004997       0.00000000
H        4.01697308       0.00055125       2.00963728       0.00123096      -0.00156378      -0.00229983       0.00000000
H        4.01721356       8.03430796       6.02609752       0.00058023       0.00012369      -0.00050294       0.00000000
H        4.01718399       4.01732033       2.00885199       0.00004568      -0.00008424      -0.00003542       0.00000000
H        4.01742510       4.01752015       6.02613930      -0.00021531      -0.00031597      -0.00063419       0.00000000
H        8.03387659       2.00843315       0.00076103       0.00141288       0.00000410      -0.00164037       0.00000000
H        0.00077934       2.00861835       4.01727173      -0.00193107      -0.00001342       0.00032209       0.00000000
H        8.03445491       6.02587899       0.00034452       0.00045634       0.00019790      -0.00112846       0.00000000
H        0.00012301       6.02595829       4.01674193       0.00043352      -0.00037078       0.00133973       0.00000000
H        4.01672080       2.00887184       8.03443354       0.00168540      -0.00101228       0.00048148       0.00000000
H        4.01695428       2.00893820       4.01765200       0.00123257      -0.00079467      -0.00013047       0.00000000
H        4.01663684       6.02539716       0.00028097       0.00194493       0.00186141      -0.00047230       0.00000000
H        4.01730129       6.02592824       4.01735127      -0.00015738       0.00010001      -0.00000507       0.00000000
H        2.00895033       0.00049766       8.03421790      -0.00077350      -0.00149991       0.00105345       0.00000000
H        2.00830211       0.00100463       4.01755446       0.00083378      -0.00326524      -0.00060167       0.00000000
H        2.00900296       4.01724931       0.00042880      -0.00099254      -0.00032736      -0.00104223       0.00000000
H        2.00894624       4.01723782       4.01736195      -0.00060750       0.00063262      -0.00008434       0.00000000
H        6.02592735       0.00032467       8.03408316      -0.00125651      -0.00064671       0.00131256       0.00000000
H        6.02614597       8.03351118       4.01743483      -0.00120353       0.00242721       0.00002780       0.00000000
H        6.02586991       4.01728530       0.00077163      -0.00027844      -0.00030343      -0.00215104       0.00000000
H        6.02634619       4.01736750       4.01671317      -0.00093031       0.00004538       0.00185476       0.00000000
H        2.00922865       2.00753859       2.00852298      -0.00142597       0.00234085       0.00050814       0.00000000
H        2.00860614       2.00807385       6.02615955       0.00025767       0.00143911      -0.00034359       0.00000000
H        2.00887601       6.02598994       2.00792047      -0.00056265       0.00034915       0.00257733       0.00000000
H        2.00843572       6.02613858       6.02645144       0.00043942      -0.00054599      -0.00180384       0.00000000
H        6.02596014       2.00916614       2.01004648      -0.00092397      -0.00195977      -0.00296775       0.00000000
H        6.02613167       2.00947595       6.02621491      -0.00115730      -0.00207890      -0.00092629       0.00000000
H        6.02666010       6.02515588       2.00789637      -0.00245744       0.00223308       0.00188934       0.00000000
H        6.02678013       6.02550370       6.02609608      -0.00234727       0.00068882      -0.00065581       0.00000000
64
Lattice="8.03447757 0.0 0.0 0.0 8.03447757 0.0 0.0 0.0 8.03447757" Properties=species:S:1:pos:R:3:forces:R:3:energies:R:1 energy=-206.9706315 pbc="T T T"
Li       8.02834124       0.00751762       8.02504397       0.02420946      -0.02062274       0.02403387       0.00000000
Li       8.02907101       8.03360784       4.01622845       0.01029912       0.00392866       0.01286887       0.00000000
Li       0.00195206       4.01414069       8.03422569      -0.00464001       0.00115847      -0.00193108       0.00000000
Li       0.00336371       4.02208076       4.01470399      -0.00637746      -0.01343632       0.01860212       0.00000000
Li       4.01894330       8.03121284       0.00105766      -0.01253743       0.01452289      -0.00568436       0.00000000
Li       4.01351625       0.00668685       4.01299144       0.02342315      -0.02134471       0.01116795       0.00000000
Li       4.01863759       4.01559622       0.00368582      -0.00548811      -0.01334201      -0.01417540       0.00000000
Li       4.01604398       4.01684485       4.01950820       0.00575758       0.00531574      -0.00620616       0.00000000
Li       0.00192450       2.00888943       2.01688342      -0.00932820      -0.00806136      -0.01248501       0.00000000
Li       0.00618679       2.00765967       6.02354296      -0.01830349       0.00554437      -0.00296822       0.00000000
Li       0.00402929       6.02948157       2.01224824      -0.00368490      -0.00127737      -0.00775498       0.00000000
Li       0.00637737       6.01893776       6.03021536      -0.01853872       0.02038660      -0.00796859       0.00000000
Li       4.01966616       2.00962555       2.00657839      -0.00063704      -0.00162168       0.00338815       0.00000000
Li       4.01078525       2.00902891       6.02498065       0.01686721       0.00105542       0.01014891       0.00000000
Li       4.01536531       6.02676238       2.00160393       0.00594827      -0.00481991       0.03164991       0.00000000
Li       4.01330053       6.01783133       6.02376431       0.01428812       0.01812626      -0.00289975       0.00000000
Li       2.01182322       8.03035283       2.01167265      -0.01367075       0.00879168      -0.00544380       0.00000000
Li       2.01297882       8.02971811       6.01773387      -0.01419215       0.01300549       0.02506150       0.00000000
Li       2.01297721       4.01490710       2.00523495      -0.00995876       0.00090082       0.01757982       0.00000000
Li       2.00843468       4.01658020       6.03128426      -0.00101906      -0.00888930      -0.01426418       0.00000000
Li       6.02626006       8.03296090       2.00970485      -0.00062092       0.01240171       0.00322947       0.00000000
Li       6.01965693       8.02860959       6.02971995       0.01319368       0.01685428      -0.02210641       0.00000000
Li       6.03048893       4.02260204       2.00508808      -0.01795751      -0.02152004       0.01493045       0.00000000
Li       6.02302659       4.02345876       6.02914082       0.00919207      -0.02324793      -0.01104770       0.00000000
Li       2.00534791       2.00192458       0.00939190       0.00497433       0.00219452      -0.02208230       0.00000000
Li       2.01474922       2.01163168       4.01352453      -0.01561264      -0.00250703       0.00964481       0.00000000
Li       2.01608607       6.02205080       0.00706568      -0.03242413       0.01649778      -0.01818426       0.00000000
Li       2.00937078       6.02910555       4.02212985       0.00447971      -0.01804153      -0.00909222       0.00000000
Li       6.02302144       2.00188763       8.03411602       0.00007108       0.02220942      -0.00420643       0.00000000
Li       6.02202927       2.00817436       4.02057084       0.01081722       0.01022060       0.00290694       0.00000000
Li       6.02719021       6.02339882       0.00090259       0.00415001       0.00909815      -0.01120410       0.00000000
Li       6.02168684       6.02475617       4.01282159       0.00398471       0.00439711       0.02355746       0.00000000
H        0.00923451       0.00084217       2.01479027      -0.03052529      -0.00521854      -0.00809785       0.00000000
H        0.00026040       0.00468008       6.02375660       0.00288455      -0.01236731       0.00333443       0.00000000
H        0.00122759       4.01268830       2.01316972      -0.00572844       0.01575205      -0.01329163       0.00000000
H        0.00691921       4.02207851       6.02993913      -0.01487284      -0.01121653      -0.00396129       0.00000000
H        4.02097096       8.03231107       2.00774910      -0.00965555      -0.00067153       0.00015880       0.00000000
H        4.02036315       0.00210624       6.02252941      -0.01708345      -0.00845555       0.01177101       0.00000000
H        4.01056720       4.01452570       2.00482503       0.01302979       0.01338545       0.00279800       0.00000000
H        4.01212163       4.01297320       6.02632361       0.00614229       0.01292441       0.00632593       0.00000000
H        8.03222366       2.00494523       8.03248671      -0.00170398       0.01022336       0.01008729       0.00000000
H        0.00335520       2.00887867       4.01942280      -0.00300046       0.00314870      -0.00653866       0.00000000
H        0.00239162       6.03424537       8.03349672      -0.00837045      -0.02312863       0.01464388       0.00000000
H        8.03069373       6.02167286       4.02461910       0.01102432       0.01086224      -0.02014524       0.00000000
H        4.01200215       2.00902377       0.00924720       0.00337143      -0.00663068      -0.01980757       0.00000000
H        4.02471591       2.01120312       4.01823522      -0.02422954      -0.00542540      -0.00617569       0.00000000
H        4.02151064       6.02592784       8.02617370      -0.01693644      -0.00386202       0.02416971       0.00000000
H        4.02226403       6.02769855       4.02303759      -0.01543622      -0.00412037      -0.01660766       0.00000000
H        2.00023959       8.03393741       0.01186017       0.02748981      -0.00709835      -0.02903078       0.00000000
H        2.01766710       8.02717913       4.01738622      -0.01453207       0.01622453       0.00221993       0.00000000
H        2.00296818       4.00798933       8.03030808       0.01316207       0.02273760       0.02222406       0.00000000
H        2.01630140       4.01976025       4.01619888      -0.01499113      -0.00624219      -0.00123983       0.00000000
H        6.01848397       0.00562582       8.03348837       0.01418210      -0.01798773       0.00607982       0.00000000
H        6.02775520       0.00695055       4.01652171      -0.00556358      -0.01718610      -0.00200408       0.00000000
H        6.01786829       4.01881860       8.02963672       0.02059928       0.00329732       0.01936615       0.00000000
H        6.02126149       4.01905924       4.02448966       0.01154515       0.00178314      -0.02139578       0.00000000
H        2.00358820       2.00160280       2.00989904       0.01512668       0.01480621       0.00456801       0.00000000
H        2.00777569       2.01233823       6.01918104       0.00701154      -0.01697180       0.01522916       0.00000000
H        2.00601807       6.02334523       2.01886303       0.01261552      -0.00115057      -0.02650687       0.00000000
H        2.00284919       6.02058266       6.02746660       0.02306136       0.01285706       0.00473848       0.00000000
H        6.01634753       2.01215906       2.00913617       0.02601196      -0.00570034      -0.00102460       0.00000000
H        6.02338717       2.01105223       6.02797687       0.00162985      -0.00358413       0.00106981       0.00000000
H        6.01862819       6.02859649       2.01183013       0.01960535      -0.00694967      -0.01445910       0.00000000
H        6.02952921       6.02652215       6.02398052      -0.01266327      -0.00189652       0.01259851       0.00000000
64
Lattice="8.03447757 0.0 0.0 0.0 8.03447757 0.0 0.0 0.0 8.03447757" Properties=species:S:1:pos:R:3:forces:R:3:energies:R:1 energy=-206.96163162 pbc="T T T"
Li       8.02767936       0.00754928       8.02103155       0.02856253      -0.02889998       0.03860334       0.00000000
Li       8.02221133       8.02907519       4.01579804       0.03893012       0.01537875       0.01179245       0.00000000
Li       0.00302217       4.01285349       0.00268649      -0.01178966       0.01100774       0.00940575       0.00000000
Li       0.00774877       4.01513158       4.01587895      -0.02954949       0.01668113       0.01637426       0.00000000
Li       4.01109651       8.02952239       0.00046238       0.01228615      -0.00009426      -0.00747597       0.00000000
Li       4.01580953       0.00711067       4.00965094       0.00198332      -0.01118450       0.01290375       0.00000000
Li       4.02620470       4.01096563       8.03286561      -0.02266544       0.02017044       0.03711248       0.00000000
Li       4.01237335       4.02340452       4.02639946       0.02519838      -0.01371966      -0.05611020       0.00000000
Li       0.00171215       2.00926986       2.02447118      -0.00422913      -0.02069962      -0.03692194       0.00000000
Li       0.00797382       2.01418158       6.02415093      -0.02705742      -0.01737872       0.00326711       0.00000000
Li       0.00214746       6.03014827       2.00960129       0.00174628      -0.00710695      -0.01352593       0.00000000
Li       0.01246316       6.01389886       6.03670175      -0.03801684       0.02969307      -0.01103076       0.00000000
Li       4.02351243       2.00486215       2.00240971      -0.00942290       0.01614100       0.02393440       0.00000000
Li       4.00741945       2.01151164       6.02904907       0.02497987      -0.02587451      -0.00725549       0.00000000
Li       4.01008336       6.02648398       1.99746416       0.01675606      -0.02079303       0.02589460       0.00000000
Li       4.01440093       6.01822808       6.01724361       0.01702516       0.04001904       0.03313256       0.00000000
Li       2.01237198       8.02665810       2.00643578      -0.01954494       0.01271312       0.00553370       0.00000000
Li       2.01525330       8.02729571       6.01507470      -0.00729781       0.03214569       0.02758878       0.00000000
Li       2.01042016       4.00585289       2.00784897       0.00660956       0.03543930       0.00074414       0.00000000
Li       2.01597865       4.01385040       6.03512514      -0.02783194       0.00075030      -0.00385928       0.00000000
Li       6.02251407       8.03394802       2.00715318       0.01726674      -0.01329832      -0.00375997       0.00000000
Li       6.02020721       8.03232304       6.03148207       0.00771553       0.00186322      -0.00918017       0.00000000
Li       6.03817535       4.02222169       2.00710530      -0.03272650      -0.00226289       0.01733772       0.00000000
Li       6.01617519       4.02663254       6.03091516       0.03686732      -0.02531451      -0.00884568       0.00000000
Li       2.00522354       1.99842372       0.00808686       0.00435546       0.01552943      -0.00631518       0.00000000
Li       2.01864819       2.01840482       4.01558762      -0.02635031      -0.03792779      -0.00364956       0.00000000
Li       2.01012947       6.02028474       8.03067059      -0.00034330       0.00771826       0.02508619       0.00000000
Li       2.01366087       6.02483981       4.02972292      -0.01158876       0.01716690      -0.04733722       0.00000000
Li       6.02366830       2.00466402       0.00541620       0.01828793       0.00846010      -0.00877339       0.00000000
Li       6.02454036       2.00579985       4.01669445      -0.00245546       0.01418110       0.00968864       0.00000000
Li       6.02164650       6.02995207       0.00224861       0.01484119      -0.01538479       0.00233437       0.00000000
Li       6.02456776       6.02545750       4.01611388       0.00273543       0.00606955       0.00251739       0.00000000
H        8.03101632       8.02692492       2.00218362       0.01654517       0.01600624       0.02029658       0.00000000
H        0.00966580       8.03241440       6.03137939      -0.02019441      -0.00040964      -0.01288442       0.00000000
H        8.02350143       4.01752272       2.01536120       0.03600369      -0.00713477      -0.00010497       0.00000000
H        8.02836221       4.02375274       6.03185551       0.02722942      -0.01902495      -0.00587880       0.00000000
H        4.01549185       8.02162273       2.00718202       0.00628939       0.02943931      -0.00748233       0.00000000
H        4.02484985       0.00811651       6.03428289      -0.01621652      -0.01517497      -0.02031908       0.00000000
H        4.02839707       4.01435376       2.02245275      -0.02062449       0.00198830      -0.02941103       0.00000000
H        4.00540320       4.02089013       6.01919406       0.01926533      -0.01546545       0.02003621       0.00000000
H        0.00315835       2.00080546       0.00922567      -0.00311960       0.02028349      -0.01769100       0.00000000
H        8.03145765       2.00914621       4.01554455       0.00496586       0.00669117       0.01042399       0.00000000
H        0.00394067       6.01506707       8.03002567      -0.00133466       0.02612362       0.00567629       0.00000000
H        0.00158898       6.03743907       4.03772807       0.00980541      -0.02797410      -0.03272428       0.00000000
H        4.01667501       2.01056687       0.00556886       0.00391460      -0.00099332      -0.01328245       0.00000000
H        4.00352024       2.00216835       4.01056519       0.04011829       0.02895944       0.02356022       0.00000000
H        4.00966372       6.01246511       0.00164128       0.02142873       0.02397358      -0.00634622       0.00000000
H        4.01544163       6.04882345       4.00798098      -0.00293053      -0.05523395       0.02853124       0.00000000
H        2.02789820       0.00328096       8.03071639      -0.04190106      -0.00960836       0.00606361       0.00000000
H        2.01510611       0.02321739       4.01850108      -0.01511982      -0.06126533      -0.00199235       0.00000000
H        2.00456969       4.02617650       0.01928692       0.01473744      -0.04280521      -0.04902771       0.00000000
H        2.00842399       4.01976997       4.00994075       0.00244591       0.00593989       0.03447902       0.00000000
H        6.03077777       8.03002044       0.01031627      -0.01783823       0.01049405      -0.02741730       0.00000000
H        6.02376287       8.03286360       4.00797897       0.00176409       0.00586905       0.02858515       0.00000000
H        6.02890260       4.02523952       0.01048628      -0.01369772      -0.03106220      -0.02571628       0.00000000
H        6.02854900       4.02543419       4.02483876      -0.01316738      -0.01455259      -0.00272185       0.00000000
H        2.01591012       2.00656273       2.01294138      -0.01565259       0.00251664      -0.01030223       0.00000000
H        1.99671921       2.01110896       6.02394244       0.03530438       0.01337458       0.01314105       0.00000000
H        2.00319596       6.01723236       1.99885252       0.01158936       0.02044329       0.03546182       0.00000000
H        2.03211309       6.02734632       6.03761985      -0.04789089      -0.01294997      -0.03519448       0.00000000
H        6.03234835       2.00418332       2.00854315      -0.01679045       0.00584258       0.00672884       0.00000000
H        6.02597058       2.00237909       6.02990804      -0.01071834       0.02157307      -0.00240798       0.00000000
H        6.03724175       6.02733459       2.00334130      -0.02618257      -0.00185700       0.01816409       0.00000000
H        6.01091051       6.01995243       6.03981776       0.02674843       0.01482230      -0.02914302       0.00000000
64
Lattice="8.03447757 0.0 0.0 0.0 8.03447757 0.0 0.0 0.0 8.03447757" Properties=species:S:1:pos:R:3:forces:R:3:energies:R:1 energy=-206.95884603 pbc="T T T"
Li       8.03013767       0.00708673       8.02193744       0.01254903      -0.02326393       0.02760162       0.00000000
Li       8.02616727       8.02841765       4.01451381       0.02070720       0.00586327       0.01611940       0.00000000
Li       0.00550434       4.01451502       0.00370871      -0.03169339      -0.00430834       0.00851193       0.00000000
Li       0.01112462       4.01168752       4.01549458      -0.04349435       0.02906438       0.01414944       0.00000000
Li       4.00955461       8.02801801       8.03151646       0.01607360       0.01184659      -0.00355379       0.00000000
Li       4.01305821       0.00144942       4.01126137       0.00847745       0.00461499       0.00679925       0.00000000
Li       4.02810060       4.01410092       8.03413345      -0.00852348       0.00100125       0.03535266       0.00000000
Li       4.01403295       4.02542584       4.02446909       0.02883934      -0.02322869      -0.05243107       0.00000000
Li       0.00283633       2.00541066       2.02694290      -0.01199696      -0.00860279      -0.04715607       0.00000000
Li       0.00250250       2.01490316       6.02433476      -0.02042544      -0.02281332       0.00990893       0.00000000
Li       0.00022400       6.02778219       2.00434698       0.00070266      -0.00407269       0.00164213       0.00000000
Li       0.01295833       6.01200674       6.03684645      -0.04829260       0.03211855      -0.02517815       0.00000000
Li       4.02179224       2.00400278       2.00146654       0.00354082       0.01741242       0.02094439       0.00000000
Li       4.00725354       2.01210065       6.02648366       0.03671207      -0.02524040       0.00410794       0.00000000
Li       4.00853054       6.02689591       1.99443669       0.02611521      -0.02312959       0.03133859       0.00000000
Li       4.01577105       6.01815745       6.01482861       0.01438876       0.03549483       0.03797713       0.00000000
Li       2.01023320       8.02532678       2.00846047      -0.01290150       0.01760598      -0.00526339       0.00000000
Li       2.01468382       8.03270677       6.01354454      -0.01403811       0.01401303       0.03474879       0.00000000
Li       2.01108541       4.00309778       2.01141258       0.01052806       0.03889660      -0.01130490       0.00000000
Li       2.01784362       4.01417982       6.03797120      -0.02895300      -0.00544214      -0.01064308       0.00000000
Li       6.01928959       0.00281697       2.00272401       0.01775312      -0.02210688       0.00748630       0.00000000
Li       6.01710164       0.00182945       6.03171403       0.01451700      -0.01168366      -0.01181281       0.00000000
Li       6.03803443       4.02224643       2.01219297      -0.02874599      -0.00679800       0.00282020       0.00000000
Li       6.01420931       4.02436239       6.02946927       0.04176835      -0.02422298      -0.00509998       0.00000000
Li       2.00355092       1.99873891       0.00219518       0.01621636       0.01580757       0.00903389       0.00000000
Li       2.01398546       2.02094790       4.01920804      -0.00480109      -0.04782274      -0.00909877       0.00000000
Li       2.00798065       6.01978267       8.02416692       0.00791339       0.01080059       0.03720453       0.00000000
Li       2.01454731       6.02212174       4.03039637      -0.02446394       0.02130505      -0.04812754       0.00000000
Li       6.02695802       2.00637826       0.00819846       0.00482913       0.01120770      -0.01569506       0.00000000
Li       6.02955709       2.00865531       4.01618530      -0.02383676       0.00063939       0.00375207       0.00000000
Li       6.01571152       6.03024356       0.00156729       0.03201221      -0.02381248       0.00015206       0.00000000
Li       6.02664467       6.02640533       4.01759053       0.00364548       0.00214146      -0.00737943       0.00000000
H        8.02287024       0.00233369       2.00053502       0.03712490      -0.01035363       0.01222052       0.00000000
H        0.01455791       8.02565780       6.03406540      -0.03622271       0.01665331      -0.01779841       0.00000000
H        8.02623146       4.01284577       2.02316573       0.04332621       0.00070756      -0.01803485       0.00000000
H        8.01853130       4.00813114       6.02270947       0.05488010       0.01736735       0.00941368       0.00000000
H        4.01443853       8.02552845       2.00349082       0.00024269       0.01212892       0.00594304       0.00000000
H        4.01549185       0.00243613       6.03869326       0.00014861      -0.00706841      -0.04246400       0.00000000
H        4.03762708       4.01742607       2.01869214      -0.04966407      -0.00387939      -0.02254565       0.00000000
H        4.01304310       4.01644434       6.02374599      -0.00262931      -0.00156624       0.00879474       0.00000000
H        8.02640525       2.01591606       0.00243220       0.03095101      -0.02612138       0.00280213       0.00000000
H        0.00395706       2.00689455       4.01074395      -0.00568246       0.00865854       0.02845605       0.00000000
H        0.00211194       6.00707333       8.02774950       0.00928967       0.04214168       0.00492475       0.00000000
H        8.03322933       6.03403856       4.03261043       0.01723155      -0.02575106      -0.02832073       0.00000000
H        4.03318835       2.01594788       8.02612420      -0.03909909      -0.01540692       0.02359739       0.00000000
H        4.00790112       2.00736248       4.00376930       0.01873822       0.00857368       0.04568404       0.00000000
H        4.01683232       6.01171862       0.00847509      -0.00269530       0.02127785      -0.03177613       0.00000000
H        4.01211520       6.03222373       4.02021251      -0.00044047      -0.01144068      -0.00594159       0.00000000