32
Lattice="7.12149022 0.0 0.0 0.0 7.12149022 0.0 0.0 0.0 3.56074511" Properties=species:S:1:pos:R:3:forces:R:3:energies:R:1 energy=-291.47710027 pbc="T T T"
C        7.12104790       7.12106870       1.78030565       0.01944319       0.00747400      -0.00059415       0.00000000
C        6.23159222       4.45075321       0.89060449      -0.01586998       0.00925929      -0.01805177       0.00000000
C        5.34131279       3.56078392       3.56041855       0.00315568       0.00396998       0.00908005       0.00000000
C        4.45144948       6.23155989       0.89003299      -0.02030206      -0.01151924       0.01675560       0.00000000
C        3.56061059       5.34108555       0.00025716       0.01454254       0.00334848      -0.01084749       0.00000000
C        4.45151293       4.45101172       2.67021661      -0.02564199       0.00341791       0.02166132       0.00000000
C        3.56097307       3.56088277       1.78034475       0.00011725      -0.00413929       0.00203530       0.00000000
C        6.23140222       2.67059800       2.67004131       0.00125078      -0.00663428       0.02306385       0.00000000
C        5.34119009       1.78056726       1.78057132      -0.00767500      -0.00108393      -0.01850755       0.00000000
C        6.23119555       0.89029011       0.89016641      -0.00012309      -0.00572275       0.00244512       0.00000000
C        5.34124215       0.00008517       3.56060788       0.00033903      -0.00100870       0.00255528       0.00000000
C        4.45098836       2.67124734       0.88984149       0.00287869      -0.03000288       0.00902207       0.00000000
C        3.56099593       1.78014274       0.00004661      -0.00546519       0.01190290      -0.00321122       0.00000000
C        4.45083076       0.89005439       2.67053622       0.00859618       0.01072678       0.00303077       0.00000000
C        3.56068443       0.00008610       1.78079635       0.00895626      -0.00380209      -0.02613669       0.00000000
C        2.67051724       6.23164058       2.67045835       0.00209399      -0.01667031       0.00534062       0.00000000
C        1.78053749       5.34088672       1.78031377      -0.00638507       0.00910353       0.00697937       0.00000000
C        2.67073972       4.45061327       0.89048018      -0.00024532       0.01148441      -0.00184216       0.00000000
C        1.78076331       3.56045398       0.00073593      -0.01366755       0.01003879      -0.03726386       0.00000000
C        0.89018037       6.23073964       0.89009178       0.00430529       0.02181340      -0.00064393       0.00000000
C        7.12137670       5.34091214       0.00006872       0.00811692       0.00668294       0.00163942       0.00000000
C        0.89002070       4.45130462       2.67069318       0.01449653      -0.02584603       0.00251713       0.00000000
C        7.12126426       3.56090506       1.78022742       0.02212531      -0.01163602       0.00222402       0.00000000
C        2.67065141       2.67040871       2.67056895       0.00149254      -0.00044808      -0.00020335       0.00000000
C        1.78013228       1.78018455       1.78020808       0.00511670       0.00368929       0.00425029       0.00000000
C        2.67072291       0.88998032       0.88990412      -0.00602472       0.00910765       0.01666663       0.00000000
C        1.78050388       0.00033321       3.56050248      -0.01178317      -0.02176536       0.00862525       0.00000000
C        0.89037934       2.67043898       0.88965288      -0.00884945      -0.00097992       0.02666858       0.00000000
C        0.00005484       1.77991778       0.00006851      -0.00541554       0.02165567      -0.01073627       0.00000000
C        0.88968877       0.89001344       2.67076796       0.01554637      -0.00164728      -0.01680692       0.00000000
C        5.34115690       5.34118746       1.78103589       0.00908170       0.00075603      -0.03293040       0.00000000
C        6.23156502       6.23125680       2.67045995      -0.01419726      -0.00152648       0.01321366       0.00000000
32
Lattice="7.12149022 0.0 0.0 0.0 7.12149022 0.0 0.0 0.0 3.56074511" Properties=species:S:1:pos:R:3:forces:R:3:energies:R:1 energy=-291.46360596 pbc="T T T"
C        0.00295649       7.12008244       1.78008218      -0.19618786      -0.04503226      -0.05120940       0.00000000
C        6.23614200       4.45191814       0.88837094      -0.03034938      -0.23762968      -0.00814932       0.00000000
C        5.34562550       3.55762034       0.00093584      -0.14068119       0.03198154      -0.10381523       0.00000000
C        4.44532286       6.22330174       0.88869144       0.27971686       0.19876706       0.04945803       0.00000000
C        3.56048988       5.33761738       0.00206630      -0.13869328      -0.05112594      -0.11791069       0.00000000
C        4.44619261       4.44672145       2.67090341       0.26719856      -0.01621215      -0.07634547       0.00000000
C        3.56065360       3.55645057       1.77726434      -0.06139902       0.03510453       0.13070601       0.00000000
C        6.23322091       2.66617128       2.67051927       0.05766417       0.06953290      -0.03003819       0.00000000
C        5.34152039       1.77914196       1.77649601       0.03866095      -0.05530953       0.07957649       0.00000000
C        6.23196482       0.88577516       0.88421331      -0.00115180       0.05977530       0.22142504       0.00000000
C        5.34045451       7.11888440       3.55805828      -0.00083422      -0.10105939      -0.00057901       0.00000000
C        4.44904035       2.66869485       0.88852697       0.18575603       0.00532962       0.04009055       0.00000000
C        3.56210624       1.77924380       0.00086640      -0.02307126      -0.09263855      -0.08135061       0.00000000
C        4.45220336       0.89013365       2.66901083       0.04287488      -0.06485753       0.00234258       0.00000000
C        3.56450860       7.12051871       1.78213391      -0.19117880      -0.11810325      -0.01459307       0.00000000
C        2.66788229       6.23055384       2.67648448       0.12740673      -0.04111108      -0.20347782       0.00000000
C        1.77900936       5.34321210       1.77935835       0.08365202      -0.21120523       0.08208560       0.00000000
C        2.66900264       4.44706591       0.88978160       0.00724323       0.08198253       0.02959036       0.00000000
C        1.77712017       3.55810624       0.00133044       0.27808836      -0.06294771      -0.02986861       0.00000000
C        0.88713408       6.22930964       0.88940085       0.14994019       0.01599242       0.03915405       0.00000000
C        0.00312327       5.34130546       3.55540364      -0.10632247      -0.11623055       0.12995750       0.00000000
C        0.89418129       4.44571404       2.67009522      -0.09408669       0.13763189       0.00192945       0.00000000
C        0.00832858       3.55508367       1.78123461      -0.25577720       0.14971441       0.00727913       0.00000000
C        2.67518695       2.66474399       2.66939144      -0.18648355       0.09272272       0.09851608       0.00000000
C        1.78279265       1.77454340       1.78494590       0.05219504       0.02787186      -0.12744398       0.00000000
C        2.67081435       0.88402070       0.88870547       0.06097286       0.12598192       0.16247060       0.00000000
C        1.78126780       7.11668977       0.00530950      -0.06784928       0.08911699      -0.16374710       0.00000000
C        0.89519988       2.66785309       0.89690647      -0.09987486      -0.10551281      -0.21492220       0.00000000
C        0.00341917       1.77692511       0.00199480      -0.06935659       0.00655135      -0.05904905       0.00000000
C        0.89070002       0.88703288       2.67160071       0.07711267      -0.01737344       0.05970703       0.00000000
C        5.34060663       5.33324329       1.77446692       0.00368500       0.16206760       0.20234370       0.00000000
C        6.23163531       6.22728407       2.66767174      -0.04887626       0.04631234      -0.05408003       0.00000000
32
Lattice="7.12149022 0.0 0.0 0.0 7.12149022 0.0 0.0 0.0 3.56074511" Properties=species:S:1:pos:R:3:forces:R:3:energies:R:1 energy=-291.45013619 pbc="T T T"
C        7.11902319       7.11476711       1.78233118       0.17648591       0.07947086      -0.01588219       0.00000000
C        6.22440407       4.44039486       0.88684765       0.15425553       0.34668116       0.08526515       0.00000000
C        5.34026102       3.55207462       3.55927210       0.03829913      -0.03285122       0.12863571       0.00000000
C        4.45066568       6.22850477       0.89211702      -0.14024292      -0.18551126      -0.21666775       0.00000000
C        3.55243333       5.33959338       3.55422507       0.39827195      -0.07766753       0.18406698       0.00000000
C        4.45592868       4.44343837       2.67208785      -0.40180497       0.07848478      -0.03559232       0.00000000
C        3.55864975       3.55708295       1.78309357       0.05751742      -0.04916993      -0.15374705       0.00000000
C        6.23542387       2.66504110       2.67250859      -0.09787170       0.00609559      -0.08904596       0.00000000
C        5.34026593       1.77483196       1.78166938       0.17060323      -0.07683796       0.06559112       0.00000000
C        6.23563680       0.88435591       0.89653007      -0.19435125      -0.03952038      -0.28590547       0.00000000
C        5.34065555       7.10925322       3.55537412       0.08124171       0.25570211       0.31028844       0.00000000
C        4.45134757       2.65909815       0.89264807      -0.04422172       0.23020849      -0.02883840       0.00000000
C        3.56719561       1.77392305       0.00154839      -0.28101257      -0.03317638       0.07143064       0.00000000
C        4.45364724       0.88067717       2.67395066      -0.05911291       0.16772671      -0.14286852       0.00000000
C        3.56211977       7.11713963       1.77792604       0.08785795       0.09241967       0.05736140       0.00000000
C        2.67570895       6.23348255       2.66055965      -0.17823395      -0.27165221       0.20487292       0.00000000
C        1.78613640       5.33936791       1.77262078      -0.32946269       0.10452179       0.18416854       0.00000000
C        2.66591811       4.45116718       0.88614729       0.16574857      -0.16892272       0.02763661       0.00000000
C        1.77801869       3.55792507       3.55867628      -0.04653393       0.05117852       0.13691235       0.00000000
C        0.89068827       6.23252321       0.88774140      -0.08589934      -0.21799987      -0.04503844       0.00000000
C        7.11380357       5.34316702       3.55580746       0.16667226      -0.18941527       0.16775076       0.00000000
C        0.88734025       4.45601862       2.67188525       0.11590121      -0.13635871      -0.18295448       0.00000000
C        0.00106829       3.56556700       1.78006216      -0.06874950      -0.29746203       0.02077248       0.00000000
C        2.66819022       2.66797451       2.67589561       0.12528340      -0.10131055      -0.17175765       0.00000000
C        1.77989670       1.77301278       1.78341001       0.03122753       0.10519932      -0.00274739       0.00000000
C        2.67258440       0.88186019       0.89360890       0.00516325       0.18729229      -0.16149240       0.00000000
C        1.78393601       7.11583241       3.55729215      -0.02065649       0.06101696       0.12400278       0.00000000
C        0.88989166       2.66965084       0.89221907       0.02500808      -0.09513798       0.00188919       0.00000000
C        0.00151766       1.77279835       0.00261095       0.03977052       0.10677277       0.07461168       0.00000000
C        0.89443460       0.88053944       2.67836701      -0.18773551       0.16940507      -0.24788638       0.00000000
C        5.33403990       5.33518069       1.78236479       0.16987844      -0.10598484      -0.23639010       0.00000000
C        6.22517070       6.22388962       2.66349538       0.12669376       0.03694718       0.17170017       0.00000000
32
Lattice="7.12149022 0.0 0.0 0.0 7.12149022 0.0 0.0 0.0 3.56074511" Properties=species:S:1:pos:R:3:forces:R:3:energies:R:1 energy=-291.43432475 pbc="T T T"
C        0.00008966       7.11324076       1.78253368      -0.05528921       0.09098206      -0.13245724       0.00000000
C        6.21728664       4.44910957       0.88705699       0.36573348      -0.14965534       0.26089373       0.00000000
C        5.33758455       3.55086525       3.56019330       0.06102344       0.10689782       0.15524322       0.00000000
C        4.44823526       6.22829454       0.89595785       0.18750854       0.01674642      -0.34846161       0.00000000
C        3.56672495       5.34212251       3.55165268      -0.34353086      -0.10869784       0.46260777       0.00000000
C        4.45235597       4.44737043       2.68324986      -0.12565620      -0.12523397      -0.61766929       0.00000000
C        3.55745562       3.55586376       1.78014132       0.05161773       0.09174265       0.04929113       0.00000000
C        6.22999102       2.66035993       2.67158326       0.06772017       0.19979630      -0.00460500       0.00000000
C        5.33758811       1.78007851       1.78383492       0.21358835      -0.33626793      -0.02697168       0.00000000
C        6.23288399       0.88856030       0.89010068      -0.11566632      -0.21201187       0.15556178       0.00000000
C        5.34191342       7.11133604       3.55801683      -0.02169673       0.26155097       0.23979487       0.00000000
C        4.45262609       2.65904417       0.89480688      -0.12302080       0.30898015      -0.08461483       0.00000000
C        3.56887486       1.77267002       0.00331829      -0.37868496       0.11230144      -0.10624255       0.00000000
C        4.45189129       0.88161101       2.67350136       0.09673514       0.15591240      -0.10648743       0.00000000
C        3.57022616       0.00058774       1.77434372      -0.38467799      -0.11359815       0.20485346       0.00000000
C        2.67429099       6.23132887       2.65939440      -0.00575400      -0.10354079       0.16676760       0.00000000
C        1.77326830       5.33992004       1.77756498       0.24615616      -0.00986707      -0.03007232       0.00000000
C        2.66897879       4.45066640       0.88804328      -0.00781350      -0.06128050      -0.08761782       0.00000000
C        1.77552318       3.55861251       3.55410934       0.15556652       0.14505412       0.25697274       0.00000000
C        0.89396366       6.22857071       0.88155179      -0.26925676      -0.06908745       0.28306234       0.00000000
C        7.10973663       5.33601398       0.00485219       0.23896189       0.08556868      -0.20778964       0.00000000
C        0.88107056       4.45260415       2.67421134       0.07627378      -0.10971562      -0.22040752       0.00000000
C        7.11971562       3.55911707       1.77798443      -0.19592684       0.07502201       0.14636969       0.00000000
C        2.66691797       2.66866736       2.67028590       0.05160620      -0.18098713       0.01922448       0.00000000
C        1.77006206       1.77696620       1.78002496       0.44555889       0.01293033      -0.00146388       0.00000000
C        2.67866565       0.88553523       0.89052159      -0.31608255       0.12356960      -0.09832347       0.00000000
C        1.78806042       7.11622523       3.55448667      -0.08820585       0.03936396       0.06679487       0.00000000
C        0.89127074       2.68029341       0.89196256      -0.16714343      -0.54516365      -0.13678074       0.00000000
C        7.12029352       1.77107004       0.00726470       0.08391689       0.23919048      -0.25495078       0.00000000
C        0.88743090       0.87890975       2.66950581       0.08648092       0.26309332       0.10162506       0.00000000
C        5.33771744       5.34024685       1.78199647      -0.09246599      -0.23536060       0.07618625       0.00000000
C        6.22408539       6.22451225       2.67355196       0.26246040       0.03186292      -0.18024207       0.00000000
32
Lattice="7.12149022 0.0 0.0 0.0 7.12149022 0.0 0.0 0.0 3.56074511" Properties=species:S:1:pos:R:3:forces:R:3:energies:R:1 energy=-291.43098749 pbc="T T T"
C        0.00049829       7.11300746       1.78159649      -0.09312435       0.09148290      -0.10226595       0.00000000
C        6.21667070       4.45055466       0.88672292       0.36587199      -0.22178645       0.30006851       0.00000000
C        5.33692638       3.55065204       3.56038127       0.07066784       0.13595990       0.13781425       0.00000000
C        4.44785227       6.22782225       0.89606001       0.23194095       0.08058895      -0.31567730       0.00000000
C        3.56945391       5.34192275       3.55313341      -0.47785375      -0.09864075       0.39777134       0.00000000
C        4.45201549       4.44764240       2.68340629      -0.08323652      -0.13735033      -0.62242559       0.00000000
C        3.55832950       3.55592877       1.77937213      -0.00314197       0.10265044       0.09864037       0.00000000
C        6.22886412       2.65991050       2.67110185       0.10225836       0.21262727       0.03554052       0.00000000
C        5.33792033       1.78030732       1.78411807       0.17464196      -0.32976749      -0.05464851       0.00000000
C        6.23197600       0.88875094       0.88914768      -0.07477503      -0.20228334       0.20901409       0.00000000
C        5.34136991       7.11300988       3.55932042      -0.00857441       0.20112911       0.17182953       0.00000000
C        4.45211363       2.66040836       0.89519560      -0.09895334       0.24958660      -0.11018713       0.00000000
C        3.56805902       1.77226047       0.00335241      -0.35167667       0.16400906      -0.12645423       0.00000000
C        4.45160558       0.88261086       2.67268951       0.10815319       0.11970506      -0.05791124       0.00000000
C        3.57084210       0.00090899       1.77459849      -0.43745257      -0.12136118       0.18438627       0.00000000
C        2.67368716       6.23118658       2.65924346       0.04375872      -0.10069761       0.19666527       0.00000000
C        1.77116888       5.33997944       1.77862726       0.33516366      -0.02542341      -0.07432493       0.00000000
C        2.66988806       4.45056499       0.88821647      -0.05150020      -0.05118578      -0.08048316       0.00000000
C        1.77510258       3.55853823       3.55405789       0.18478603       0.16562975       0.23765945       0.00000000
C        0.89360538       6.22799701       0.88109516      -0.24798436      -0.04262595       0.29731457       0.00000000
C        7.10959064       5.33513625       0.00619402       0.23592773       0.12241786      -0.26044038       0.00000000
C        0.88004620       4.45249826       2.67410947       0.07571195      -0.13199005      -0.19497176       0.00000000
C        7.11788354       3.55832480       1.77830572      -0.16142853       0.12626337       0.12643779       0.00000000
C        2.66678309       2.66812734       2.66937919       0.03381881      -0.15226217       0.04304512       0.00000000
C        1.76860935       1.77791023       1.77901840       0.49879195      -0.00929593       0.01457401       0.00000000
C        2.67891441       0.88683092       0.89018275      -0.33910697       0.07003391      -0.09406041       0.00000000
C        1.78916795       7.11630642       3.55387907      -0.13184239       0.03710349       0.07564547       0.00000000
C        0.89083184       2.68131171       0.89173018      -0.18315257      -0.57150634      -0.13493939       0.00000000
C        7.12072744       1.77134350       0.00764193       0.04872599       0.22667777      -0.30394040       0.00000000
C        0.88719831       0.87876846       2.66805225       0.09943008       0.27543599       0.14010617       0.00000000
C        5.33826544       5.34133601       1.78262216      -0.11558185      -0.26091353       0.07850494       0.00000000
C        6.22445442       6.22422383       2.67496579       0.24978790       0.07588647      -0.21221620       0.00000000
32
Lattice="7.12149022 0.0 0.0 0.0 7.12149022 0.0 0.0 0.0 3.56074511" Properties=species:S:1:pos:R:3:forces:R:3:energies:R:1 energy=-291.42478604 pbc="T T T"
C        7.11955360       7.11205937       1.77748543      -0.03445859       0.14173129       0.06909240       0.00000000
C        6.21868324       4.45377243       0.88562439       0.10782826      -0.36645068       0.35824801       0.00000000
C        5.33272349       3.54822375       0.00264784       0.14730207       0.35262848      -0.15206137       0.00000000
C        4.44630876       6.22729070       0.89215840       0.31256782       0.31579916       0.04445268       0.00000000
C        3.57616128       5.34112265       0.00066671      -0.83727869      -0.04582247      -0.10268894       0.00000000
C        4.44854775       4.44978298       2.67564618       0.12005275      -0.16594537      -0.25702200       0.00000000
C        3.56181177       3.55984203       1.77413249      -0.24084552       0.02010212       0.34700363       0.00000000
C        6.22239517       2.66124941       2.66569432       0.20037176       0.10078900       0.36755809       0.00000000
C        5.33805243       1.77528867       1.78387608       0.04072943       0.05250109      -0.11339607       0.00000000
C        6.22694509       0.88829139       0.89000361       0.15996830      -0.05389947       0.15940906       0.00000000
C        5.33783715       0.00432866       0.00775904       0.05828937      -0.25470884      -0.31538768       0.00000000
C        4.45036964       2.66908155       0.89619400      -0.10778790      -0.18054998      -0.22091111       0.00000000
C        3.56011514       1.77212786       0.00244737      -0.00844696       0.38051699      -0.15594436       0.00000000
C        4.45237591       0.88935456       2.66908176      -0.06513386      -0.09625466       0.22435404       0.00000000
C        3.56862739       0.00258496       1.78030230      -0.44050027      -0.19011153      -0.10375440       0.00000000
C        2.66875717       6.22952122       2.66147249       0.29100675      -0.04234618       0.22439340       0.00000000
C        1.76809247       5.34023496       1.77942721       0.35298512      -0.13706674      -0.11440716       0.00000000
C        2.67032717       4.45211868       0.88733512      -0.06814147      -0.06109003      -0.01481064       0.00000000
C        1.77522614       3.56032451       3.55739751       0.09006749       0.11777839      -0.05636312       0.00000000
C        0.88973022       6.22234518       0.88193724      -0.06654643       0.23954536       0.19753800       0.00000000
C        7.10753409       5.33517856       0.01074619       0.32081441       0.07582145      -0.54070869       0.00000000
C        0.87420010       4.44841088       2.66651831       0.18427709      -0.01426129       0.22621886       0.00000000
C        7.10482251       3.55764470       1.78265937       0.24580028       0.11500199      -0.21746597       0.00000000
C        2.66799923       2.66567734       2.66783134      -0.02547720       0.09708624       0.07064874       0.00000000
C        1.77246492       1.78144377       1.77808118       0.19812684      -0.07006276      -0.06819971       0.00000000
C        2.67480053       0.89246800       0.88751241      -0.19641534      -0.21144668       0.02292666       0.00000000
C        1.79288516       7.11515715       3.54998016      -0.50096116       0.08485981       0.24478300       0.00000000
C        0.88730079       2.67994090       0.88855567      -0.11814628      -0.39182290       0.06767175       0.00000000
C        0.00278251       1.77538117       0.00544445      -0.21511810       0.05976683      -0.33583264       0.00000000
C        0.88508893       0.88182373       2.66325948       0.23883963       0.15035283       0.20712640       0.00000000
C        5.34043956       5.34329606       1.78205308      -0.19418371      -0.18377326       0.10540171       0.00000000
C        6.22646361       6.22673586       2.67784116       0.05052207       0.16138477      -0.16784322       0.00000000
32
Lattice="7.12149022 0.0 0.0 0.0 7.12149022 0.0 0.0 0.0 3.56074511" Properties=species:S:1:pos:R:3:forces:R:3:energies:R:1 energy=-291.40959213 pbc="T T T"
C        7.11725607       0.00020709       1.77714004      -0.04790333       0.06563696      -0.08776718       0.00000000
C        6.21641533       4.44757895       0.89244596       0.20845350       0.16359176      -0.43162447       0.00000000
C        5.32513035       3.56041902       3.55598108       0.01648009       0.20182239       0.19624325       0.00000000
C        4.45334230       6.24037124       0.89589348      -0.52067393      -0.34793789      -0.09494639       0.00000000
C        3.54229518       5.34367122       0.00301478       0.59341047       0.00364208      -0.02006974       0.00000000
C        4.43724595       4.45236145       2.66255079       0.02573259       0.14212815       0.35227031       0.00000000
C        3.54882929       3.56446110       1.78348016       0.06152391      -0.04712397      -0.43079951       0.00000000
C        6.21071486       2.67340536       2.67462770       0.28804258      -0.03442095      -0.35140445       0.00000000
C        5.32899347       1.78399647       1.78118458      -0.05877012      -0.06951960      -0.06366313       0.00000000
C        6.22630615       0.89910203       0.89866163      -0.01238893      -0.13272337      -0.38288559       0.00000000
C        5.33882618       0.00761772       0.00948607      -0.11789202       0.01944183      -0.11889970       0.00000000
C        4.43350325       2.67403134       0.88431553       0.23779021       0.02259102       0.22303025       0.00000000
C        3.55506223       1.79617578       3.55277855      -0.28816431      -0.70158474       0.21881127       0.00000000
C        4.44143388       0.88999229       2.67383401       0.04216850       0.18677129       0.02350830       0.00000000
C        3.55042472       7.11630428       1.79366485       0.10355340       0.26249154      -0.41308063       0.00000000
C        2.66190252       6.22707762       2.67829021      -0.23553326       0.03097756      -0.18931921       0.00000000
C        1.77803998       5.32747218       1.78177513      -0.31381328       0.36737029      -0.26206390       0.00000000
C        2.66512677       4.45020293       0.88718343      -0.25323252      -0.05642091       0.09391880       0.00000000
C        1.76314446       3.55884602       3.55916361       0.26339149      -0.13557683      -0.09139454       0.00000000
C        0.87643226       6.22213460       0.87576921       0.22707823       0.07807766       0.51752686       0.00000000
C        7.11738717       5.33917542       3.54337647      -0.34239969      -0.13503007       0.47391735       0.00000000
C        0.87822281       4.43598167       2.65950016       0.05927076       0.36557612       0.14123793       0.00000000
C        7.10919625       3.55441176       1.77117170      -0.10849762      -0.05114633       0.18759835       0.00000000
C        2.66240302       2.67459679       2.66120059      -0.10149692       0.00715745       0.24343810       0.00000000
C        1.78132527       1.78060536       1.77170819      -0.32031290      -0.07612487       0.11812173       0.00000000
C        2.65802444       0.88974816       0.88870536       0.27699092      -0.02282596      -0.03767239       0.00000000
C        1.76194086       7.11844051       0.00149071       0.37769254       0.11387627      -0.16896281       0.00000000
C        0.87896089       2.65839583       0.88546801       0.02949646       0.40522386      -0.13023266       0.00000000
C        7.11007390       1.78468946       3.54697738       0.07946277      -0.24221990       0.40358378       0.00000000
C        0.88969931       0.89225899       2.65936339      -0.24459487      -0.08896839       0.20739480       0.00000000
C        5.32994633       5.34150593       1.77886223       0.20122650       0.21008375       0.13603344       0.00000000
C        6.22757057       6.24524113       2.67545254      -0.12590806      -0.50483949      -0.26144780       0.00000000
32
Lattice="7.12149022 0.0 0.0 0.0 7.12149022 0.0 0.0 0.0 3.56074511" Properties=species:S:1:pos:R:3:forces:R:3:energies:R:1 energy=-291.36773132 pbc="T T T"
C        0.00358147       0.01273216       1.77561077      -0.59258960      -0.39833574       0.00903787       0.00000000
C        6.22179661       4.45188460       0.88265227       0.00073102       0.02789531       0.14370297       0.00000000
C        5.31881857       3.57709513       3.55363302       0.16337619      -0.42518429       0.12832562       0.00000000
C        4.43663635       6.22596482       0.90546305       0.02061297       0.29006284      -0.56630314       0.00000000
C        3.53675658       5.34145408       3.56018817       0.23262540      -0.03081876       0.17794559       0.00000000
C        4.43620080       4.45751841       2.66844998      -0.10723965       0.08840709      -0.22167692       0.00000000
C        3.54177538       3.55358573       1.76194894       0.10800165       0.78030849       0.62845856       0.00000000
C        6.20700150       2.67185879       2.66423146       0.34215554       0.23383301      -0.01235985       0.00000000
C        5.31485226       1.79100693       1.78329126       0.27211141      -0.19378931      -0.24082219       0.00000000
C        6.22422169       0.90119838       0.88332433      -0.42801622      -0.30666137       0.32258864       0.00000000
C        5.32218732       7.11969981       0.00016344       0.26875547       0.24626715       0.21000645       0.00000000